# Probe 0 (-95.459415 95.459415 5.1)
# Probe 1 (-90.156115 100.76272 5.1)
# Probe 2 (-84.852814 106.06602 5.1)
# Probe 3 (-79.549513 100.76272 5.1)
# Probe 4 (-84.852814 95.459415 5.1)
# Probe 5 (-90.156115 90.156115 5.1)
# Probe 6 (-90.156115 79.549513 5.1)
# Probe 7 (-84.852814 84.852814 5.1)
# Probe 8 (-79.549513 90.156115 5.1)
# Probe 9 (-74.246212 95.459415 5.1)
# Probe 10 (-68.942911 100.76272 5.1)
# Probe 11 (-58.336309 100.76272 5.1)
# Probe 12 (-63.63961 95.459415 5.1)
# Probe 13 (-68.942911 90.156115 5.1)
# Probe 14 (-74.246212 84.852814 5.1)
# Probe 15 (-79.549513 79.549513 5.1)
# Probe 16 (-84.852814 74.246212 5.1)
# Probe 17 (-90.156115 68.942911 5.1)
# Probe 18 (-90.156115 58.336309 5.1)
# Probe 19 (-84.852814 63.63961 5.1)
# Probe 20 (-79.549513 68.942911 5.1)
# Probe 21 (-74.246212 74.246212 5.1)
# Probe 22 (-68.942911 79.549513 5.1)
# Probe 23 (-63.63961 84.852814 5.1)
# Probe 24 (-58.336309 90.156115 5.1)
# Probe 25 (-53.033009 95.459415 5.1)
# Probe 26 (-47.729708 100.76272 5.1)
# Probe 27 (-37.123106 100.76272 5.1)
# Probe 28 (-42.426407 95.459415 5.1)
# Probe 29 (-47.729708 90.156115 5.1)
# Probe 30 (-53.033009 84.852814 5.1)
# Probe 31 (-58.336309 79.549513 5.1)
# Probe 32 (-63.63961 74.246212 5.1)
# Probe 33 (-68.942911 68.942911 5.1)
# Probe 34 (-74.246212 63.63961 5.1)
# Probe 35 (-79.549513 58.336309 5.1)
# Probe 36 (-84.852814 53.033009 5.1)
# Probe 37 (-90.156115 47.729708 5.1)
# Probe 38 (-90.156115 37.123106 5.1)
# Probe 39 (-84.852814 42.426407 5.1)
# Probe 40 (-79.549513 47.729708 5.1)
# Probe 41 (-74.246212 53.033009 5.1)
# Probe 42 (-68.942911 58.336309 5.1)
# Probe 43 (-63.63961 63.63961 5.1)
# Probe 44 (-58.336309 68.942911 5.1)
# Probe 45 (-53.033009 74.246212 5.1)
# Probe 46 (-47.729708 79.549513 5.1)
# Probe 47 (-42.426407 84.852814 5.1)
# Probe 48 (-37.123106 90.156115 5.1)
# Probe 49 (-31.819805 95.459415 5.1)
# Probe 50 (-26.516504 100.76272 5.1)
# Probe 51 (-15.909903 100.76272 5.1)
# Probe 52 (-21.213203 95.459415 5.1)
# Probe 53 (-26.516504 90.156115 5.1)
# Probe 54 (-31.819805 84.852814 5.1)
# Probe 55 (-37.123106 79.549513 5.1)
# Probe 56 (-42.426407 74.246212 5.1)
# Probe 57 (-47.729708 68.942911 5.1)
# Probe 58 (-53.033009 63.63961 5.1)
# Probe 59 (-58.336309 58.336309 5.1)
# Probe 60 (-63.63961 53.033009 5.1)
# Probe 61 (-68.942911 47.729708 5.1)
# Probe 62 (-74.246212 42.426407 5.1)
# Probe 63 (-79.549513 37.123106 5.1)
# Probe 64 (-84.852814 31.819805 5.1)
# Probe 65 (-90.156115 26.516504 5.1)
# Probe 66 (-90.156115 15.909903 5.1)
# Probe 67 (-84.852814 21.213203 5.1)
# Probe 68 (-79.549513 26.516504 5.1)
# Probe 69 (-74.246212 31.819805 5.1)
# Probe 70 (-68.942911 37.123106 5.1)
# Probe 71 (-63.63961 42.426407 5.1)
# Probe 72 (-58.336309 47.729708 5.1)
# Probe 73 (-53.033009 53.033009 5.1)
# Probe 74 (-47.729708 58.336309 5.1)
# Probe 75 (-42.426407 63.63961 5.1)
# Probe 76 (-37.123106 68.942911 5.1)
# Probe 77 (-31.819805 74.246212 5.1)
# Probe 78 (-26.516504 79.549513 5.1)
# Probe 79 (-21.213203 84.852814 5.1)
# Probe 80 (-15.909903 90.156115 5.1)
# Probe 81 (-10.606602 95.459415 5.1)
# Probe 82 (-5.3033009 90.156115 5.1)
# Probe 83 (-10.606602 84.852814 5.1)
# Probe 84 (-15.909903 79.549513 5.1)
# Probe 85 (-21.213203 74.246212 5.1)
# Probe 86 (-26.516504 68.942911 5.1)
# Probe 87 (-31.819805 63.63961 5.1)
# Probe 88 (-37.123106 58.336309 5.1)
# Probe 89 (-42.426407 53.033009 5.1)
# Probe 90 (-47.729708 47.729708 5.1)
# Probe 91 (-53.033009 42.426407 5.1)
# Probe 92 (-58.336309 37.123106 5.1)
# Probe 93 (-63.63961 31.819805 5.1)
# Probe 94 (-68.942911 26.516504 5.1)
# Probe 95 (-74.246212 21.213203 5.1)
# Probe 96 (-79.549513 15.909903 5.1)
# Probe 97 (-84.852814 10.606602 5.1)
# Probe 98 (-90.156115 5.3033009 5.1)
# Probe 99 (-84.852814 0 5.1)
# Probe 100 (-79.549513 5.3033009 5.1)
# Probe 101 (-74.246212 10.606602 5.1)
# Probe 102 (-68.942911 15.909903 5.1)
# Probe 103 (-63.63961 21.213203 5.1)
# Probe 104 (-58.336309 26.516504 5.1)
# Probe 105 (-53.033009 31.819805 5.1)
# Probe 106 (-47.729708 37.123106 5.1)
# Probe 107 (-42.426407 42.426407 5.1)
# Probe 108 (-37.123106 47.729708 5.1)
# Probe 109 (-31.819805 53.033009 5.1)
# Probe 110 (-26.516504 58.336309 5.1)
# Probe 111 (-21.213203 63.63961 5.1)
# Probe 112 (-15.909903 68.942911 5.1)
# Probe 113 (-10.606602 74.246212 5.1)
# Probe 114 (-5.3033009 79.549513 5.1)
# Probe 115 (0 84.852814 5.1)
# Probe 116 (5.3033009 79.549513 5.1)
# Probe 117 (0 74.246212 5.1)
# Probe 118 (-5.3033009 68.942911 5.1)
# Probe 119 (-10.606602 63.63961 5.1)
# Probe 120 (-15.909903 58.336309 5.1)
# Probe 121 (-21.213203 53.033009 5.1)
# Probe 122 (-26.516504 47.729708 5.1)
# Probe 123 (-31.819805 42.426407 5.1)
# Probe 124 (-37.123106 37.123106 5.1)
# Probe 125 (-42.426407 31.819805 5.1)
# Probe 126 (-47.729708 26.516504 5.1)
# Probe 127 (-53.033009 21.213203 5.1)
# Probe 128 (-58.336309 15.909903 5.1)
# Probe 129 (-63.63961 10.606602 5.1)
# Probe 130 (-68.942911 5.3033009 5.1)
# Probe 131 (-74.246212 0 5.1)
# Probe 132 (-79.549513 -5.3033009 5.1)
# Probe 133 (-74.246212 -10.606602 5.1)
# Probe 134 (-68.942911 -5.3033009 5.1)
# Probe 135 (-63.63961 0 5.1)
# Probe 136 (-58.336309 5.3033009 5.1)
# Probe 137 (-53.033009 10.606602 5.1)
# Probe 138 (-47.729708 15.909903 5.1)
# Probe 139 (-42.426407 21.213203 5.1)
# Probe 140 (-37.123106 26.516504 5.1)
# Probe 141 (-31.819805 31.819805 5.1)
# Probe 142 (-26.516504 37.123106 5.1)
# Probe 143 (-21.213203 42.426407 5.1)
# Probe 144 (-15.909903 47.729708 5.1)
# Probe 145 (-10.606602 53.033009 5.1)
# Probe 146 (-5.3033009 58.336309 5.1)
# Probe 147 (0 63.63961 5.1)
# Probe 148 (5.3033009 68.942911 5.1)
# Probe 149 (10.606602 74.246212 5.1)
# Probe 150 (15.909903 68.942911 5.1)
# Probe 151 (10.606602 63.63961 5.1)
# Probe 152 (5.3033009 58.336309 5.1)
# Probe 153 (0 53.033009 5.1)
# Probe 154 (-5.3033009 47.729708 5.1)
# Probe 155 (-10.606602 42.426407 5.1)
# Probe 156 (-15.909903 37.123106 5.1)
# Probe 157 (-21.213203 31.819805 5.1)
# Probe 158 (-26.516504 26.516504 5.1)
# Probe 159 (-31.819805 21.213203 5.1)
# Probe 160 (-37.123106 15.909903 5.1)
# Probe 161 (-42.426407 10.606602 5.1)
# Probe 162 (-47.729708 5.3033009 5.1)
# Probe 163 (-53.033009 0 5.1)
# Probe 164 (-58.336309 -5.3033009 5.1)
# Probe 165 (-63.63961 -10.606602 5.1)
# Probe 166 (-68.942911 -15.909903 5.1)
# Probe 167 (-63.63961 -21.213203 5.1)
# Probe 168 (-58.336309 -15.909903 5.1)
# Probe 169 (-53.033009 -10.606602 5.1)
# Probe 170 (-47.729708 -5.3033009 5.1)
# Probe 171 (-42.426407 0 5.1)
# Probe 172 (-37.123106 5.3033009 5.1)
# Probe 173 (-31.819805 10.606602 5.1)
# Probe 174 (-26.516504 15.909903 5.1)
# Probe 175 (-21.213203 21.213203 5.1)
# Probe 176 (-15.909903 26.516504 5.1)
# Probe 177 (-10.606602 31.819805 5.1)
# Probe 178 (-5.3033009 37.123106 5.1)
# Probe 179 (0 42.426407 5.1)
# Probe 180 (5.3033009 47.729708 5.1)
# Probe 181 (10.606602 53.033009 5.1)
# Probe 182 (15.909903 58.336309 5.1)
# Probe 183 (21.213203 63.63961 5.1)
# Probe 184 (26.516504 58.336309 5.1)
# Probe 185 (21.213203 53.033009 5.1)
# Probe 186 (15.909903 47.729708 5.1)
# Probe 187 (10.606602 42.426407 5.1)
# Probe 188 (5.3033009 37.123106 5.1)
# Probe 189 (0 31.819805 5.1)
# Probe 190 (-5.3033009 26.516504 5.1)
# Probe 191 (-10.606602 21.213203 5.1)
# Probe 192 (-15.909903 15.909903 5.1)
# Probe 193 (-21.213203 10.606602 5.1)
# Probe 194 (-26.516504 5.3033009 5.1)
# Probe 195 (-31.819805 0 5.1)
# Probe 196 (-37.123106 -5.3033009 5.1)
# Probe 197 (-42.426407 -10.606602 5.1)
# Probe 198 (-47.729708 -15.909903 5.1)
# Probe 199 (-53.033009 -21.213203 5.1)
# Probe 200 (-58.336309 -26.516504 5.1)
# Probe 201 (-53.033009 -31.819805 5.1)
# Probe 202 (-47.729708 -26.516504 5.1)
# Probe 203 (-42.426407 -21.213203 5.1)
# Probe 204 (-37.123106 -15.909903 5.1)
# Probe 205 (-31.819805 -10.606602 5.1)
# Probe 206 (-26.516504 -5.3033009 5.1)
# Probe 207 (-21.213203 0 5.1)
# Probe 208 (-15.909903 5.3033009 5.1)
# Probe 209 (-10.606602 10.606602 5.1)
# Probe 210 (-5.3033009 15.909903 5.1)
# Probe 211 (0 21.213203 5.1)
# Probe 212 (5.3033009 26.516504 5.1)
# Probe 213 (10.606602 31.819805 5.1)
# Probe 214 (15.909903 37.123106 5.1)
# Probe 215 (21.213203 42.426407 5.1)
# Probe 216 (26.516504 47.729708 5.1)
# Probe 217 (31.819805 53.033009 5.1)
# Probe 218 (37.123106 47.729708 5.1)
# Probe 219 (31.819805 42.426407 5.1)
# Probe 220 (26.516504 37.123106 5.1)
# Probe 221 (21.213203 31.819805 5.1)
# Probe 222 (15.909903 26.516504 5.1)
# Probe 223 (10.606602 21.213203 5.1)
# Probe 224 (5.3033009 15.909903 5.1)
# Probe 225 (0 10.606602 5.1)
# Probe 226 (-5.3033009 5.3033009 5.1)
# Probe 227 (-10.606602 0 5.1)
# Probe 228 (-15.909903 -5.3033009 5.1)
# Probe 229 (-21.213203 -10.606602 5.1)
# Probe 230 (-26.516504 -15.909903 5.1)
# Probe 231 (-31.819805 -21.213203 5.1)
# Probe 232 (-37.123106 -26.516504 5.1)
# Probe 233 (-42.426407 -31.819805 5.1)
# Probe 234 (-47.729708 -37.123106 5.1)
# Probe 235 (-42.426407 -42.426407 5.1)
# Probe 236 (-37.123106 -37.123106 5.1)
# Probe 237 (-31.819805 -31.819805 5.1)
# Probe 238 (-26.516504 -26.516504 5.1)
# Probe 239 (-21.213203 -21.213203 5.1)
# Probe 240 (-15.909903 -15.909903 5.1)
# Probe 241 (-10.606602 -10.606602 5.1)
# Probe 242 (-5.3033009 -5.3033009 5.1)
# Probe 243 (0 0 5.1)
# Probe 244 (5.3033009 5.3033009 5.1)
# Probe 245 (10.606602 10.606602 5.1)
# Probe 246 (15.909903 15.909903 5.1)
# Probe 247 (21.213203 21.213203 5.1)
# Probe 248 (26.516504 26.516504 5.1)
# Probe 249 (31.819805 31.819805 5.1)
# Probe 250 (37.123106 37.123106 5.1)
# Probe 251 (42.426407 42.426407 5.1)
# Probe 252 (-84.852814 106.06602 2.55)
# Probe 253 (-90.156115 100.76272 2.55)
# Probe 254 (-95.459415 95.459415 2.55)
# Probe 255 (-85.913474 96.520076 2.55)
# Probe 256 (-90.156115 90.156115 2.55)
# Probe 257 (-90.156115 79.549513 2.55)
# Probe 258 (-90.156115 68.942911 2.55)
# Probe 259 (-90.156115 58.336309 2.55)
# Probe 260 (-90.156115 47.729708 2.55)
# Probe 261 (-90.156115 37.123106 2.55)
# Probe 262 (-90.156115 26.516504 2.55)
# Probe 263 (-90.156115 15.909903 2.55)
# Probe 264 (-90.156115 5.3033009 2.55)
# Probe 265 (-90.156115 -5.3033009 2.55)
# Probe 266 (-79.549513 -5.3033009 2.55)
# Probe 267 (-79.549513 5.3033009 2.55)
# Probe 268 (-79.549513 15.909903 2.55)
# Probe 269 (-79.549513 26.516504 2.55)
# Probe 270 (-79.549513 37.123106 2.55)
# Probe 271 (-79.549513 47.729708 2.55)
# Probe 272 (-79.549513 58.336309 2.55)
# Probe 273 (-79.549513 68.942911 2.55)
# Probe 274 (-79.549513 79.549513 2.55)
# Probe 275 (-79.549513 90.156115 2.55)
# Probe 276 (-79.549513 100.76272 2.55)
# Probe 277 (-74.246212 95.459415 2.55)
# Probe 278 (-74.246212 84.852814 2.55)
# Probe 279 (-74.246212 74.246212 2.55)
# Probe 280 (-74.246212 63.63961 2.55)
# Probe 281 (-74.246212 53.033009 2.55)
# Probe 282 (-74.246212 42.426407 2.55)
# Probe 283 (-74.246212 31.819805 2.55)
# Probe 284 (-74.246212 21.213203 2.55)
# Probe 285 (-74.246212 10.606602 2.55)
# Probe 286 (-74.246212 0 2.55)
# Probe 287 (-74.246212 -10.606602 2.55)
# Probe 288 (-70.003571 -14.849242 2.55)
# Probe 289 (-70.003571 -4.2426407 2.55)
# Probe 290 (-70.003571 6.363961 2.55)
# Probe 291 (-70.003571 16.970563 2.55)
# Probe 292 (-70.533901 28.107495 2.55)
# Probe 293 (-70.533901 38.714096 2.55)
# Probe 294 (-71.064232 48.790368 2.55)
# Probe 295 (-71.064232 59.39697 2.55)
# Probe 296 (-71.594562 70.533901 2.55)
# Probe 297 (-71.064232 80.610173 2.55)
# Probe 298 (-71.064232 91.216775 2.55)
# Probe 299 (-71.064232 101.82338 2.55)
# Probe 300 (-63.63961 95.459415 2.55)
# Probe 301 (-63.63961 84.852814 2.55)
# Probe 302 (-63.63961 74.246212 2.55)
# Probe 303 (-63.63961 63.63961 2.55)
# Probe 304 (-63.63961 53.033009 2.55)
# Probe 305 (-63.63961 42.426407 2.55)
# Probe 306 (-63.63961 31.819805 2.55)
# Probe 307 (-63.63961 21.213203 2.55)
# Probe 308 (-63.63961 10.606602 2.55)
# Probe 309 (-63.63961 0 2.55)
# Probe 310 (-63.63961 -10.606602 2.55)
# Probe 311 (-63.63961 -21.213203 2.55)
# Probe 312 (-58.336309 -26.516504 2.55)
# Probe 313 (-58.336309 -15.909903 2.55)
# Probe 314 (-58.336309 -5.3033009 2.55)
# Probe 315 (-58.336309 5.3033009 2.55)
# Probe 316 (-58.336309 15.909903 2.55)
# Probe 317 (-58.336309 26.516504 2.55)
# Probe 318 (-58.336309 37.123106 2.55)
# Probe 319 (-58.336309 47.729708 2.55)
# Probe 320 (-58.336309 58.336309 2.55)
# Probe 321 (-58.336309 68.942911 2.55)
# Probe 322 (-58.336309 79.549513 2.55)
# Probe 323 (-58.336309 84.852814 2.55)
# Probe 324 (-58.336309 95.459415 2.55)
# Probe 325 (-58.336309 100.76272 2.55)
# Probe 326 (-53.033009 100.76272 2.55)
# Probe 327 (-51.442018 93.868425 2.55)
# Probe 328 (-51.442018 83.261823 2.55)
# Probe 329 (-51.442018 72.655222 2.55)
# Probe 330 (-51.442018 62.04862 2.55)
# Probe 331 (-51.442018 51.442018 2.55)
# Probe 332 (-50.911688 40.305087 2.55)
# Probe 333 (-50.381358 30.228815 2.55)
# Probe 334 (-50.381358 19.622213 2.55)
# Probe 335 (-50.381358 9.0156115 2.55)
# Probe 336 (-50.381358 -1.5909903 2.55)
# Probe 337 (-50.381358 -12.197592 2.55)
# Probe 338 (-50.381358 -22.804194 2.55)
# Probe 339 (-50.381358 -34.471456 2.55)
# Probe 340 (-47.729708 -37.123106 2.55)
# Probe 341 (-47.729708 -26.516504 2.55)
# Probe 342 (-47.729708 -15.909903 2.55)
# Probe 343 (-47.729708 -5.3033009 2.55)
# Probe 344 (-47.729708 5.3033009 2.55)
# Probe 345 (-47.729708 15.909903 2.55)
# Probe 346 (-47.729708 26.516504 2.55)
# Probe 347 (-47.729708 37.123106 2.55)
# Probe 348 (-47.729708 47.729708 2.55)
# Probe 349 (-47.729708 58.336309 2.55)
# Probe 350 (-47.729708 68.942911 2.55)
# Probe 351 (-47.729708 79.549513 2.55)
# Probe 352 (-47.729708 90.156115 2.55)
# Probe 353 (-47.729708 100.76272 2.55)
# Probe 354 (-42.426407 100.76272 2.55)
# Probe 355 (-42.426407 95.459415 2.55)
# Probe 356 (-42.426407 84.852814 2.55)
# Probe 357 (-42.426407 74.246212 2.55)
# Probe 358 (-42.426407 63.63961 2.55)
# Probe 359 (-42.426407 53.033009 2.55)
# Probe 360 (-42.426407 42.426407 2.55)
# Probe 361 (-42.426407 31.819805 2.55)
# Probe 362 (-42.426407 21.213203 2.55)
# Probe 363 (-42.426407 10.606602 2.55)
# Probe 364 (-42.426407 0 2.55)
# Probe 365 (-42.426407 -10.606602 2.55)
# Probe 366 (-42.426407 -21.213203 2.55)
# Probe 367 (-42.426407 -31.819805 2.55)
# Probe 368 (-42.426407 -42.426407 2.55)
# Probe 369 (-31.819805 -42.426407 2.55)
# Probe 370 (-33.410795 -33.410795 2.55)
# Probe 371 (-36.062446 -25.455844 2.55)
# Probe 372 (-35.001786 -18.031223 2.55)
# Probe 373 (-35.001786 -7.4246212 2.55)
# Probe 374 (-35.532116 3.7123106 2.55)
# Probe 375 (-35.532116 14.318912 2.55)
# Probe 376 (-35.532116 24.925514 2.55)
# Probe 377 (-35.532116 35.532116 2.55)
# Probe 378 (-35.532116 46.138717 2.55)
# Probe 379 (-35.532116 56.745319 2.55)
# Probe 380 (-35.532116 67.351921 2.55)
# Probe 381 (-35.532116 77.958523 2.55)
# Probe 382 (-35.532116 88.565124 2.55)
# Probe 383 (-35.532116 99.171726 2.55)
# Probe 384 (-31.819805 95.459415 2.55)
# Probe 385 (-31.819805 84.852814 2.55)
# Probe 386 (-31.819805 74.246212 2.55)
# Probe 387 (-31.819805 63.63961 2.55)
# Probe 388 (-31.819805 53.033009 2.55)
# Probe 389 (-31.819805 42.426407 2.55)
# Probe 390 (-31.819805 31.819805 2.55)
# Probe 391 (-31.819805 21.213203 2.55)
# Probe 392 (-31.819805 10.606602 2.55)
# Probe 393 (-31.819805 0 2.55)
# Probe 394 (-31.819805 -10.606602 2.55)
# Probe 395 (-31.819805 -21.213203 2.55)
# Probe 396 (-31.819805 -31.819805 2.55)
# Probe 397 (-26.516504 -26.516504 2.55)
# Probe 398 (-26.516504 -15.909903 2.55)
# Probe 399 (-26.516504 -5.3033009 2.55)
# Probe 400 (-26.516504 5.3033009 2.55)
# Probe 401 (-26.516504 15.909903 2.55)
# Probe 402 (-26.516504 26.516504 2.55)
# Probe 403 (-26.516504 37.123106 2.55)
# Probe 404 (-26.516504 47.729708 2.55)
# Probe 405 (-26.516504 58.336309 2.55)
# Probe 406 (-26.516504 68.942911 2.55)
# Probe 407 (-26.516504 79.549513 2.55)
# Probe 408 (-26.516504 90.156115 2.55)
# Probe 409 (-26.516504 100.76272 2.55)
# Probe 410 (-21.213203 100.76272 2.55)
# Probe 411 (-21.213203 95.459415 2.55)
# Probe 412 (-21.213203 84.852814 2.55)
# Probe 413 (-21.213203 74.246212 2.55)
# Probe 414 (-21.213203 63.63961 2.55)
# Probe 415 (-21.213203 53.033009 2.55)
# Probe 416 (-21.213203 42.426407 2.55)
# Probe 417 (-20.152543 30.759145 2.55)
# Probe 418 (-20.152543 20.152543 2.55)
# Probe 419 (-19.091883 10.606602 2.55)
# Probe 420 (-19.091883 0 2.55)
# Probe 421 (-19.622213 -11.136932 2.55)
# Probe 422 (-19.622213 -21.743534 2.55)
# Probe 423 (-15.909903 -15.909903 2.55)
# Probe 424 (-15.909903 -5.3033009 2.55)
# Probe 425 (-15.909903 5.3033009 2.55)
# Probe 426 (-15.909903 15.909903 2.55)
# Probe 427 (-15.909903 26.516504 2.55)
# Probe 428 (-15.909903 37.123106 2.55)
# Probe 429 (-15.909903 47.729708 2.55)
# Probe 430 (-15.909903 58.336309 2.55)
# Probe 431 (-15.909903 68.942911 2.55)
# Probe 432 (-15.909903 79.549513 2.55)
# Probe 433 (-15.909903 90.156115 2.55)
# Probe 434 (-15.909903 100.76272 2.55)
# Probe 435 (-10.606602 95.459415 2.55)
# Probe 436 (-10.606602 84.852814 2.55)
# Probe 437 (-10.606602 74.246212 2.55)
# Probe 438 (-10.606602 63.63961 2.55)
# Probe 439 (-10.606602 53.033009 2.55)
# Probe 440 (-10.606602 42.426407 2.55)
# Probe 441 (-10.606602 31.819805 2.55)
# Probe 442 (-10.606602 21.213203 2.55)
# Probe 443 (-10.606602 10.606602 2.55)
# Probe 444 (-10.606602 0 2.55)
# Probe 445 (-10.606602 -10.606602 2.55)
# Probe 446 (-5.3033009 -5.3033009 2.55)
# Probe 447 (-2.6516504 -2.6516504 2.55)
# Probe 448 (-2.6516504 2.6516504 2.55)
# Probe 449 (-3.7123106 14.318912 2.55)
# Probe 450 (-3.7123106 24.925514 2.55)
# Probe 451 (-3.7123106 35.532116 2.55)
# Probe 452 (-3.7123106 46.138717 2.55)
# Probe 453 (-3.7123106 56.745319 2.55)
# Probe 454 (-4.7729708 68.412581 2.55)
# Probe 455 (-4.7729708 79.019183 2.55)
# Probe 456 (-4.7729708 89.625785 2.55)
# Probe 457 (0 84.852814 2.55)
# Probe 458 (0 74.246212 2.55)
# Probe 459 (0 63.63961 2.55)
# Probe 460 (0 53.033009 2.55)
# Probe 461 (0 42.426407 2.55)
# Probe 462 (0 31.819805 2.55)
# Probe 463 (0 21.213203 2.55)
# Probe 464 (0 10.606602 2.55)
# Probe 465 (0 0 2.55)
# Probe 466 (5.3033009 5.3033009 2.55)
# Probe 467 (5.3033009 15.909903 2.55)
# Probe 468 (5.3033009 26.516504 2.55)
# Probe 469 (5.3033009 37.123106 2.55)
# Probe 470 (5.3033009 47.729708 2.55)
# Probe 471 (5.3033009 58.336309 2.55)
# Probe 472 (5.3033009 68.942911 2.55)
# Probe 473 (5.3033009 79.549513 2.55)
# Probe 474 (11.667262 75.306872 2.55)
# Probe 475 (10.606602 63.63961 2.55)
# Probe 476 (11.136932 52.502679 2.55)
# Probe 477 (11.667262 41.365747 2.55)
# Probe 478 (11.667262 30.759145 2.55)
# Probe 479 (12.197592 19.622213 2.55)
# Probe 480 (12.727922 12.727922 2.55)
# Probe 481 (15.909903 15.909903 2.55)
# Probe 482 (15.909903 26.516504 2.55)
# Probe 483 (15.909903 37.123106 2.55)
# Probe 484 (15.909903 47.729708 2.55)
# Probe 485 (15.909903 58.336309 2.55)
# Probe 486 (15.909903 68.942911 2.55)
# Probe 487 (19.622213 65.230601 2.55)
# Probe 488 (20.152543 54.093669 2.55)
# Probe 489 (20.152543 43.487067 2.55)
# Probe 490 (20.152543 32.880465 2.55)
# Probe 491 (20.152543 22.273864 2.55)
# Probe 492 (21.213203 15.909903 2.55)
# Probe 493 (26.516504 15.909903 2.55)
# Probe 494 (26.516504 26.516504 2.55)
# Probe 495 (26.516504 37.123106 2.55)
# Probe 496 (26.516504 47.729708 2.55)
# Probe 497 (26.516504 58.336309 2.55)
# Probe 498 (31.819805 53.033009 2.55)
# Probe 499 (31.819805 42.426407 2.55)
# Probe 500 (31.819805 31.819805 2.55)
# Probe 501 (42.426407 42.426407 2.55)
# Probe 502 (36.062446 36.062446 2.55)
# Probe 503 (35.532116 48.260038 2.55)
# Probe 504 (-84.852814 79.549513 2.55)
# Probe 505 (-68.942911 79.549513 2.55)
# Probe 506 (-53.033009 79.549513 2.55)
# Probe 507 (-39.244426 79.549513 2.55)
# Probe 508 (-24.925514 81.140503 2.55)
# Probe 509 (-9.0156115 81.140503 2.55)
# Probe 510 (7.9549513 82.201163 2.55)
# Probe 511 (22.273864 59.39697 2.55)
# Probe 512 (7.4246212 58.336309 2.55)
# Probe 513 (-6.363961 59.39697 2.55)
# Probe 514 (-23.334524 58.336309 2.55)
# Probe 515 (-38.183766 59.39697 2.55)
# Probe 516 (-53.033009 58.336309 2.55)
# Probe 517 (-68.942911 58.336309 2.55)
# Probe 518 (-84.852814 58.336309 2.55)
# Probe 519 (-87.504464 58.336309 2.55)
# Probe 520 (-87.504464 37.123106 2.55)
# Probe 521 (-84.852814 37.123106 2.55)
# Probe 522 (-68.942911 37.123106 2.55)
# Probe 523 (-53.033009 37.123106 2.55)
# Probe 524 (-37.123106 37.123106 2.55)
# Probe 525 (-22.273864 37.123106 2.55)
# Probe 526 (-5.3033009 37.123106 2.55)
# Probe 527 (10.606602 37.123106 2.55)
# Probe 528 (22.804194 38.714096 2.55)
# Probe 529 (33.410795 28.107495 2.55)
# Probe 530 (22.804194 17.500893 2.55)
# Probe 531 (10.606602 15.909903 2.55)
# Probe 532 (-5.3033009 15.909903 2.55)
# Probe 533 (-22.804194 14.318912 2.55)
# Probe 534 (-38.183766 14.849242 2.55)
# Probe 535 (-52.502679 15.379572 2.55)
# Probe 536 (-67.882251 14.849242 2.55)
# Probe 537 (-84.852814 15.909903 2.55)
# Probe 538 (-90.156115 10.606602 2.55)
# Probe 539 (-89.095454 -6.363961 2.55)
# Probe 540 (-83.261823 -6.8942911 2.55)
# Probe 541 (-67.351921 -6.8942911 2.55)
# Probe 542 (-51.972348 -6.363961 2.55)
# Probe 543 (-37.123106 -5.3033009 2.55)
# Probe 544 (-22.804194 -6.8942911 2.55)
# Probe 545 (-18.561553 -2.6516504 2.55)
# Probe 546 (-18.561553 -23.864854 2.55)
# Probe 547 (-21.213203 -26.516504 2.55)
# Probe 548 (-37.123106 -26.516504 2.55)
# Probe 549 (-53.033009 -26.516504 2.55)
# Probe 550 (-84.852814 106.06602 1.275)
# Probe 551 (-90.156115 100.76272 1.275)
# Probe 552 (-95.459415 95.459415 1.275)
# Probe 553 (-85.913474 96.520076 1.275)
# Probe 554 (-90.156115 90.156115 1.275)
# Probe 555 (-90.156115 79.549513 1.275)
# Probe 556 (-90.156115 68.942911 1.275)
# Probe 557 (-90.156115 58.336309 1.275)
# Probe 558 (-90.156115 47.729708 1.275)
# Probe 559 (-90.156115 37.123106 1.275)
# Probe 560 (-90.156115 26.516504 1.275)
# Probe 561 (-90.156115 15.909903 1.275)
# Probe 562 (-90.156115 5.3033009 1.275)
# Probe 563 (-90.156115 -5.3033009 1.275)
# Probe 564 (-79.549513 -5.3033009 1.275)
# Probe 565 (-79.549513 5.3033009 1.275)
# Probe 566 (-79.549513 15.909903 1.275)
# Probe 567 (-79.549513 26.516504 1.275)
# Probe 568 (-79.549513 37.123106 1.275)
# Probe 569 (-79.549513 47.729708 1.275)
# Probe 570 (-79.549513 58.336309 1.275)
# Probe 571 (-79.549513 68.942911 1.275)
# Probe 572 (-79.549513 79.549513 1.275)
# Probe 573 (-79.549513 90.156115 1.275)
# Probe 574 (-79.549513 100.76272 1.275)
# Probe 575 (-74.246212 95.459415 1.275)
# Probe 576 (-74.246212 84.852814 1.275)
# Probe 577 (-74.246212 74.246212 1.275)
# Probe 578 (-74.246212 63.63961 1.275)
# Probe 579 (-74.246212 53.033009 1.275)
# Probe 580 (-74.246212 42.426407 1.275)
# Probe 581 (-74.246212 31.819805 1.275)
# Probe 582 (-74.246212 21.213203 1.275)
# Probe 583 (-74.246212 10.606602 1.275)
# Probe 584 (-74.246212 0 1.275)
# Probe 585 (-74.246212 -10.606602 1.275)
# Probe 586 (-70.003571 -14.849242 1.275)
# Probe 587 (-70.003571 -4.2426407 1.275)
# Probe 588 (-70.003571 6.363961 1.275)
# Probe 589 (-70.003571 16.970563 1.275)
# Probe 590 (-70.533901 28.107495 1.275)
# Probe 591 (-70.533901 38.714096 1.275)
# Probe 592 (-71.064232 48.790368 1.275)
# Probe 593 (-71.064232 59.39697 1.275)
# Probe 594 (-71.594562 70.533901 1.275)
# Probe 595 (-71.064232 80.610173 1.275)
# Probe 596 (-71.064232 101.82338 1.275)
# Probe 597 (-63.63961 95.459415 1.275)
# Probe 598 (-63.63961 84.852814 1.275)
# Probe 599 (-63.63961 74.246212 1.275)
# Probe 600 (-63.63961 63.63961 1.275)
# Probe 601 (-63.63961 53.033009 1.275)
# Probe 602 (-63.63961 42.426407 1.275)
# Probe 603 (-63.63961 31.819805 1.275)
# Probe 604 (-63.63961 21.213203 1.275)
# Probe 605 (-63.63961 10.606602 1.275)
# Probe 606 (-63.63961 0 1.275)
# Probe 607 (-63.63961 -10.606602 1.275)
# Probe 608 (-63.63961 -21.213203 1.275)
# Probe 609 (-58.336309 -26.516504 1.275)
# Probe 610 (-58.336309 -15.909903 1.275)
# Probe 611 (-58.336309 -5.3033009 1.275)
# Probe 612 (-58.336309 5.3033009 1.275)
# Probe 613 (-58.336309 15.909903 1.275)
# Probe 614 (-58.336309 26.516504 1.275)
# Probe 615 (-58.336309 37.123106 1.275)
# Probe 616 (-58.336309 47.729708 1.275)
# Probe 617 (-58.336309 58.336309 1.275)
# Probe 618 (-58.336309 68.942911 1.275)
# Probe 619 (-58.336309 79.549513 1.275)
# Probe 620 (-58.336309 84.852814 1.275)
# Probe 621 (-58.336309 95.459415 1.275)
# Probe 622 (-58.336309 100.76272 1.275)
# Probe 623 (-53.033009 100.76272 1.275)
# Probe 624 (-51.442018 93.868425 1.275)
# Probe 625 (-51.442018 83.261823 1.275)
# Probe 626 (-51.442018 72.655222 1.275)
# Probe 627 (-51.442018 62.04862 1.275)
# Probe 628 (-51.442018 51.442018 1.275)
# Probe 629 (-50.911688 40.305087 1.275)
# Probe 630 (-50.381358 30.228815 1.275)
# Probe 631 (-50.381358 19.622213 1.275)
# Probe 632 (-50.381358 9.0156115 1.275)
# Probe 633 (-50.381358 -1.5909903 1.275)
# Probe 634 (-50.381358 -12.197592 1.275)
# Probe 635 (-50.381358 -22.804194 1.275)
# Probe 636 (-50.381358 -34.471456 1.275)
# Probe 637 (-47.729708 -37.123106 1.275)
# Probe 638 (-47.729708 -26.516504 1.275)
# Probe 639 (-47.729708 -15.909903 1.275)
# Probe 640 (-47.729708 -5.3033009 1.275)
# Probe 641 (-47.729708 5.3033009 1.275)
# Probe 642 (-47.729708 15.909903 1.275)
# Probe 643 (-47.729708 26.516504 1.275)
# Probe 644 (-47.729708 37.123106 1.275)
# Probe 645 (-47.729708 47.729708 1.275)
# Probe 646 (-47.729708 58.336309 1.275)
# Probe 647 (-47.729708 68.942911 1.275)
# Probe 648 (-47.729708 79.549513 1.275)
# Probe 649 (-47.729708 90.156115 1.275)
# Probe 650 (-47.729708 100.76272 1.275)
# Probe 651 (-42.426407 100.76272 1.275)
# Probe 652 (-42.426407 95.459415 1.275)
# Probe 653 (-42.426407 84.852814 1.275)
# Probe 654 (-42.426407 74.246212 1.275)
# Probe 655 (-42.426407 63.63961 1.275)
# Probe 656 (-42.426407 53.033009 1.275)
# Probe 657 (-42.426407 42.426407 1.275)
# Probe 658 (-42.426407 31.819805 1.275)
# Probe 659 (-42.426407 21.213203 1.275)
# Probe 660 (-42.426407 10.606602 1.275)
# Probe 661 (-42.426407 0 1.275)
# Probe 662 (-42.426407 -10.606602 1.275)
# Probe 663 (-42.426407 -21.213203 1.275)
# Probe 664 (-42.426407 -31.819805 1.275)
# Probe 665 (-42.426407 -42.426407 1.275)
# Probe 666 (-31.819805 -42.426407 1.275)
# Probe 667 (-33.410795 -33.410795 1.275)
# Probe 668 (-36.062446 -25.455844 1.275)
# Probe 669 (-35.001786 -18.031223 1.275)
# Probe 670 (-35.001786 -7.4246212 1.275)
# Probe 671 (-35.532116 3.7123106 1.275)
# Probe 672 (-35.532116 14.318912 1.275)
# Probe 673 (-35.532116 24.925514 1.275)
# Probe 674 (-35.532116 35.532116 1.275)
# Probe 675 (-35.532116 46.138717 1.275)
# Probe 676 (-35.532116 56.745319 1.275)
# Probe 677 (-35.532116 67.351921 1.275)
# Probe 678 (-35.532116 77.958523 1.275)
# Probe 679 (-35.532116 88.565124 1.275)
# Probe 680 (-35.532116 99.171726 1.275)
# Probe 681 (-31.819805 95.459415 1.275)
# Probe 682 (-31.819805 84.852814 1.275)
# Probe 683 (-31.819805 74.246212 1.275)
# Probe 684 (-31.819805 63.63961 1.275)
# Probe 685 (-31.819805 53.033009 1.275)
# Probe 686 (-31.819805 42.426407 1.275)
# Probe 687 (-31.819805 31.819805 1.275)
# Probe 688 (-31.819805 21.213203 1.275)
# Probe 689 (-31.819805 10.606602 1.275)
# Probe 690 (-31.819805 0 1.275)
# Probe 691 (-31.819805 -10.606602 1.275)
# Probe 692 (-31.819805 -21.213203 1.275)
# Probe 693 (-31.819805 -31.819805 1.275)
# Probe 694 (-26.516504 -26.516504 1.275)
# Probe 695 (-26.516504 -15.909903 1.275)
# Probe 696 (-26.516504 -5.3033009 1.275)
# Probe 697 (-26.516504 5.3033009 1.275)
# Probe 698 (-26.516504 15.909903 1.275)
# Probe 699 (-26.516504 26.516504 1.275)
# Probe 700 (-26.516504 37.123106 1.275)
# Probe 701 (-26.516504 47.729708 1.275)
# Probe 702 (-26.516504 58.336309 1.275)
# Probe 703 (-26.516504 68.942911 1.275)
# Probe 704 (-26.516504 79.549513 1.275)
# Probe 705 (-26.516504 90.156115 1.275)
# Probe 706 (-26.516504 100.76272 1.275)
# Probe 707 (-21.213203 100.76272 1.275)
# Probe 708 (-21.213203 95.459415 1.275)
# Probe 709 (-21.213203 84.852814 1.275)
# Probe 710 (-21.213203 74.246212 1.275)
# Probe 711 (-21.213203 63.63961 1.275)
# Probe 712 (-21.213203 53.033009 1.275)
# Probe 713 (-21.213203 42.426407 1.275)
# Probe 714 (-20.152543 30.759145 1.275)
# Probe 715 (-20.152543 20.152543 1.275)
# Probe 716 (-19.091883 10.606602 1.275)
# Probe 717 (-19.091883 0 1.275)
# Probe 718 (-19.622213 -11.136932 1.275)
# Probe 719 (-19.622213 -21.743534 1.275)
# Probe 720 (-15.909903 -15.909903 1.275)
# Probe 721 (-15.909903 -5.3033009 1.275)
# Probe 722 (-15.909903 5.3033009 1.275)
# Probe 723 (-15.909903 15.909903 1.275)
# Probe 724 (-15.909903 26.516504 1.275)
# Probe 725 (-15.909903 37.123106 1.275)
# Probe 726 (-15.909903 47.729708 1.275)
# Probe 727 (-15.909903 58.336309 1.275)
# Probe 728 (-15.909903 68.942911 1.275)
# Probe 729 (-15.909903 79.549513 1.275)
# Probe 730 (-15.909903 90.156115 1.275)
# Probe 731 (-15.909903 100.76272 1.275)
# Probe 732 (-10.606602 95.459415 1.275)
# Probe 733 (-10.606602 84.852814 1.275)
# Probe 734 (-10.606602 74.246212 1.275)
# Probe 735 (-10.606602 63.63961 1.275)
# Probe 736 (-10.606602 53.033009 1.275)
# Probe 737 (-10.606602 42.426407 1.275)
# Probe 738 (-10.606602 31.819805 1.275)
# Probe 739 (-10.606602 21.213203 1.275)
# Probe 740 (-10.606602 10.606602 1.275)
# Probe 741 (-10.606602 0 1.275)
# Probe 742 (-10.606602 -10.606602 1.275)
# Probe 743 (-5.3033009 -5.3033009 1.275)
# Probe 744 (-2.6516504 -2.6516504 1.275)
# Probe 745 (-2.6516504 2.6516504 1.275)
# Probe 746 (-3.7123106 14.318912 1.275)
# Probe 747 (-3.7123106 24.925514 1.275)
# Probe 748 (-3.7123106 35.532116 1.275)
# Probe 749 (-3.7123106 46.138717 1.275)
# Probe 750 (-3.7123106 56.745319 1.275)
# Probe 751 (-4.7729708 68.412581 1.275)
# Probe 752 (-4.7729708 79.019183 1.275)
# Probe 753 (-4.7729708 89.625785 1.275)
# Probe 754 (0 84.852814 1.275)
# Probe 755 (0 74.246212 1.275)
# Probe 756 (0 63.63961 1.275)
# Probe 757 (0 53.033009 1.275)
# Probe 758 (0 42.426407 1.275)
# Probe 759 (0 31.819805 1.275)
# Probe 760 (0 21.213203 1.275)
# Probe 761 (0 10.606602 1.275)
# Probe 762 (0 0 1.275)
# Probe 763 (5.3033009 5.3033009 1.275)
# Probe 764 (5.3033009 15.909903 1.275)